<?xml version="1.0" encoding="UTF-8"?>
<!--
<save-state.prefix value="output"/>
<summary-output value="output.txt"/>
-->
<configuration xmlns:xsi="http://www.w3.org/2001/XMLSchema-instance" xsi:noNamespaceSchemaLocation="http://sumo.dlr.de/xsd/sumoConfiguration.xsd">

    <input>
        <net-file value="asl_simple2.net.xml"/>
        <route-files value="route_veh_50.rou.xml"/>
        <additional-files value="loop_detectors_asl2.add.xml"/>
    </input>

	<output>
		<netstate-dump value="vehicle_trace.xml" />
		<netstate-dump.empty-edges value="false"/>
		<duration-log.statistics value="true"/>
		<tripinfo-output.write-unfinished value="true"/>
	</output>


    <report>
        <no-step-log value="true"/>
    </report>

</configuration>
